LAMMPS (29 Oct 2020)
OMP_NUM_THREADS environment is not set. Defaulting to 1 thread. (src/comm.cpp:94)
  using 1 OpenMP thread(s) per MPI task
units		lj
atom_style		atomic
dimension		3
boundary		p p p

#creating atoms in a sc lattice
lattice		sc 0.6
Lattice spacing in x,y,z = 1.1856311 1.1856311 1.1856311
region		box block 0 10 0 10 0 10
create_box		1 box
Created orthogonal box = (0.0000000 0.0000000 0.0000000) to (11.856311 11.856311 11.856311)
  1 by 1 by 1 MPI processor grid
create_atoms	1 box
Created 1000 atoms
  create_atoms CPU = 0.001 seconds

#setting up potentials
pair_style		lj/cut 3.5
pair_modify	shift yes
pair_coeff		1 1 1.0 1.0
mass		1 1.0

neighbor		0.3 bin
neigh_modify	delay 10 every 1

fix		1 all nvt temp 1.0 1.0 5.0

velocity		all create 1.0 199956 mom no

timestep		0.01

thermo_style	custom step temp etotal pe ke press vol density
thermo		500

run_style		verlet

run		1000
Neighbor list info ...
  update every 1 steps, delay 10 steps, check yes
  max neighbors/atom: 2000, page size: 100000
  master list distance cutoff = 3.8
  ghost atom cutoff = 3.8
  binsize = 1.9, bins = 7 7 7
  1 neighbor lists, perpetual/occasional/extra = 1 0 0
  (1) pair lj/cut, perpetual
      attributes: half, newton on
      pair build: half/bin/atomonly/newton
      stencil: half/bin/3d/newton
      bin: standard
Per MPI rank memory allocation (min/avg/max) = 3.245 | 3.245 | 3.245 Mbytes
Step Temp TotEng PotEng KinEng Press Volume Density 
       0            1    -2.709841    -4.208341       1.4985   -2.6415761    1666.6667          0.6 
     500   0.97614671   -2.6089308   -4.0716867    1.4627558  -0.10583518    1666.6667          0.6 
    1000   0.98214378   -2.5304241   -4.0021666    1.4717425  -0.19978584    1666.6667          0.6 
Loop time of 1.46004 on 1 procs for 1000 steps with 1000 atoms

Performance: 591763.026 tau/day, 684.911 timesteps/s
100.6% CPU use with 1 MPI tasks x 1 OpenMP threads

MPI task timing breakdown:
Section |  min time  |  avg time  |  max time  |%varavg| %total
---------------------------------------------------------------
Pair    | 1.1312     | 1.1312     | 1.1312     |   0.0 | 77.48
Neigh   | 0.31023    | 0.31023    | 0.31023    |   0.0 | 21.25
Comm    | 0.016625   | 0.016625   | 0.016625   |   0.0 |  1.14
Output  | 0          | 0          | 0          |   0.0 |  0.00
Modify  | 0.0020068  | 0.0020068  | 0.0020068  |   0.0 |  0.14
Other   |            | 0          |            |       |  0.00

Nlocal:        1000.00 ave        1000 max        1000 min
Histogram: 1 0 0 0 0 0 0 0 0 0
Nghost:        3361.00 ave        3361 max        3361 min
Histogram: 1 0 0 0 0 0 0 0 0 0
Neighs:        68725.0 ave       68725 max       68725 min
Histogram: 1 0 0 0 0 0 0 0 0 0

Total # of neighbors = 68725
Ave neighs/atom = 68.725000
Neighbor list builds = 100
Dangerous builds = 100


Total wall time: 0:00:03
