LAMMPS (29 Oct 2020)
OMP_NUM_THREADS environment is not set. Defaulting to 1 thread. (src/comm.cpp:94)
  using 1 OpenMP thread(s) per MPI task
units		lj
atom_style		atomic
dimension		3
boundary		p p p

#creating atoms in a sc lattice
lattice		sc 0.6
Lattice spacing in x,y,z = 1.1856311 1.1856311 1.1856311
region		box block 0 10 0 10 0 10
create_box		1 box
Created orthogonal box = (0.0000000 0.0000000 0.0000000) to (11.856311 11.856311 11.856311)
  1 by 1 by 1 MPI processor grid
create_atoms	1 box
Created 1000 atoms
  create_atoms CPU = 0.000 seconds

#setting up potentials
pair_style		lj/cut 3.5
pair_modify	shift yes
pair_coeff		1 1 1.0 1.0
mass		1 1.0

neighbor		0.3 bin
neigh_modify	delay 10 every 1

fix		1 all nvt temp 1.0 1.0 5.0

velocity		all create 1.0 199956 mom no

timestep		0.01

thermo_style	custom step temp etotal pe ke press vol density
thermo		250

#dump		2 all custom 250 position.lammpstrj id x y z vx vy vz

compute		RDF all rdf 150 cutoff 3.5
fix		RD_OUT all ave/time 10 5 5000 c_RDF[*] file rdf.out mode vector

run_style		verlet

run		5000
Neighbor list info ...
  update every 1 steps, delay 10 steps, check yes
  max neighbors/atom: 2000, page size: 100000
  master list distance cutoff = 3.8
  ghost atom cutoff = 3.8
  binsize = 1.9, bins = 7 7 7
  2 neighbor lists, perpetual/occasional/extra = 1 1 0
  (1) pair lj/cut, perpetual
      attributes: half, newton on
      pair build: half/bin/atomonly/newton
      stencil: half/bin/3d/newton
      bin: standard
  (2) compute rdf, occasional
      attributes: half, newton on, cut 3.8
      pair build: half/bin/atomonly/newton
      stencil: half/bin/3d/newton
      bin: standard
Per MPI rank memory allocation (min/avg/max) = 3.924 | 3.924 | 3.924 Mbytes
Step Temp TotEng PotEng KinEng Press Volume Density 
       0            1    -2.709841    -4.208341       1.4985   -2.6415761    1666.6667          0.6 
     250   0.91235681   -2.6660742   -4.0332409    1.3671667  -0.34560166    1666.6667          0.6 
     500   0.97614671   -2.6089308   -4.0716867    1.4627558  -0.10583518    1666.6667          0.6 
     750   0.97516489   -2.5729114    -4.034196    1.4612846    -0.178019    1666.6667          0.6 
    1000   0.98214378   -2.5304241   -4.0021666    1.4717425  -0.19978584    1666.6667          0.6 
    1250    1.0396954   -2.4859052   -4.0438887    1.5579835  -0.20591463    1666.6667          0.6 
    1500    1.0179962   -2.4536775   -3.9791448    1.5254673  -0.13325051    1666.6667          0.6 
    1750    1.0276276   -2.4324956   -3.9723955    1.5398999  -0.20852064    1666.6667          0.6 
    2000    1.0223812   -2.4258943   -3.9579326    1.5320383 -0.042197079    1666.6667          0.6 
    2250    1.0348514   -2.4392616   -3.9899865    1.5507248 -0.096820728    1666.6667          0.6 
    2500   0.97216362   -2.4728523   -3.9296394    1.4567872 -0.022412221    1666.6667          0.6 
    2750   0.97937583   -2.5114241   -3.9790188    1.4675947 -0.062054286    1666.6667          0.6 
    3000    1.0022848   -2.5364088   -4.0383326    1.5019238  -0.23677631    1666.6667          0.6 
    3250   0.99847016   -2.5466707   -4.0428782    1.4962075  -0.23930995    1666.6667          0.6 
    3500    0.9814578   -2.5419334   -4.0126479    1.4707145  -0.20574826    1666.6667          0.6 
    3750    1.0059168   -2.5115612   -4.0189276    1.5073664  -0.34851461    1666.6667          0.6 
    4000   0.99435808   -2.4464897   -3.9365352    1.4900456 -0.0014660972    1666.6667          0.6 
    4250    1.0520803   -2.4085717   -3.9851141    1.5765424 -0.098294733    1666.6667          0.6 
    4500    1.0202175   -2.4144662   -3.9432621    1.5287959  0.054448683    1666.6667          0.6 
    4750    1.0150341   -2.4405123   -3.9615409    1.5210287  -0.13744529    1666.6667          0.6 
    5000     1.004219    -2.468629   -3.9734512    1.5048222  -0.10838036    1666.6667          0.6 
Loop time of 7.33308 on 1 procs for 5000 steps with 1000 atoms

Performance: 589111.505 tau/day, 681.842 timesteps/s
99.9% CPU use with 1 MPI tasks x 1 OpenMP threads

MPI task timing breakdown:
Section |  min time  |  avg time  |  max time  |%varavg| %total
---------------------------------------------------------------
Pair    | 5.7634     | 5.7634     | 5.7634     |   0.0 | 78.59
Neigh   | 1.2572     | 1.2572     | 1.2572     |   0.0 | 17.14
Comm    | 0.14795    | 0.14795    | 0.14795    |   0.0 |  2.02
Output  | 0.0056088  | 0.0056088  | 0.0056088  |   0.0 |  0.08
Modify  | 0.12289    | 0.12289    | 0.12289    |   0.0 |  1.68
Other   |            | 0.03598    |            |       |  0.49

Nlocal:        1000.00 ave        1000 max        1000 min
Histogram: 1 0 0 0 0 0 0 0 0 0
Nghost:        3428.00 ave        3428 max        3428 min
Histogram: 1 0 0 0 0 0 0 0 0 0
Neighs:        68669.0 ave       68669 max       68669 min
Histogram: 1 0 0 0 0 0 0 0 0 0

Total # of neighbors = 68669
Ave neighs/atom = 68.669000
Neighbor list builds = 500
Dangerous builds = 500


Total wall time: 0:00:07
