ITEM: TIMESTEP
0
ITEM: NUMBER OF ATOMS
1000
ITEM: BOX BOUNDS pp pp pp
0.0000000000000000e+00 1.1856311014966876e+01
0.0000000000000000e+00 1.1856311014966876e+01
0.0000000000000000e+00 1.1856311014966876e+01
ITEM: ATOMS id x y z vx vy vz
1 0 0 0 0.226375 0.941227 1.10802
2 1.18563 0 0 1.20555 -1.72328 -1.03527
11 0 1.18563 0 -1.35281 -1.49492 -1.56612
12 1.18563 1.18563 0 1.09581 1.70598 -0.338466
101 0 0 1.18563 1.49118 1.58012 0.59092
102 1.18563 0 1.18563 -1.3583 0.519953 -1.7232
111 0 1.18563 1.18563 -1.17693 1.62193 -0.948416
112 1.18563 1.18563 1.18563 0.0920636 -0.678815 -1.11856
3 2.37126 0 0 1.2317 -1.48758 -0.376101
4 3.55689 0 0 -0.164907 0.144363 -0.278592
13 2.37126 1.18563 0 1.31607 1.09869 1.29509
14 3.55689 1.18563 0 0.555198 1.42042 1.13321
103 2.37126 0 1.18563 0.195213 0.173752 -1.41087
104 3.55689 0 1.18563 -0.976822 0.318216 0.0206191
113 2.37126 1.18563 1.18563 -0.624876 -1.05263 -1.27996
114 3.55689 1.18563 1.18563 -0.754097 -0.795511 0.45267
5 4.74252 0 0 0.023524 1.39784 1.65502
15 4.74252 1.18563 0 -0.756223 -1.67581 -1.57542
105 4.74252 0 1.18563 1.38434 1.43348 0.949553
115 4.74252 1.18563 1.18563 0.56219 0.397323 1.2211
6 5.92816 0 0 0.808367 -0.53607 -0.702446
7 7.11379 0 0 -0.837232 0.0224712 1.13488
16 5.92816 1.18563 0 1.66796 -1.21436 -0.00487609
17 7.11379 1.18563 0 1.72271 -1.4677 -0.942026
106 5.92816 0 1.18563 1.57184 0.899658 -0.252626
107 7.11379 0 1.18563 0.630371 -0.734994 -0.492019
116 5.92816 1.18563 1.18563 1.72751 -1.05655 -0.847736
117 7.11379 1.18563 1.18563 1.28781 0.263203 -0.665368
8 8.29942 0 0 -0.61197 -0.301234 -0.489013
9 9.48505 0 0 -1.23156 0.246322 1.50509
18 8.29942 1.18563 0 -0.582926 -0.262668 -0.794358
19 9.48505 1.18563 0 -1.08707 -1.34659 -1.49975
108 8.29942 0 1.18563 0.542938 1.06668 0.220715
109 9.48505 0 1.18563 -0.0400575 -0.357504 -1.39225
118 8.29942 1.18563 1.18563 1.74218 1.39604 -0.72301
119 9.48505 1.18563 1.18563 -1.29658 -1.18352 -1.06067
10 10.6707 0 0 -1.67342 0.234983 -0.81408
20 10.6707 1.18563 0 0.907995 0.401544 -1.04357
110 10.6707 0 1.18563 1.55901 1.47037 0.35258
120 10.6707 1.18563 1.18563 -0.405196 -1.0511 0.136446
21 0 2.37126 0 1.09381 -0.41858 0.613207
22 1.18563 2.37126 0 0.177053 -1.70784 0.355698
31 0 3.55689 0 0.749981 1.35295 0.365855
32 1.18563 3.55689 0 -1.19793 0.72347 -1.43352
121 0 2.37126 1.18563 -0.85446 -0.153635 1.32949
122 1.18563 2.37126 1.18563 -0.0483774 -0.731717 -1.19062
131 0 3.55689 1.18563 1.56877 1.65796 1.50801
132 1.18563 3.55689 1.18563 -1.53751 0.730271 1.29516
23 2.37126 2.37126 0 -1.07702 0.302377 -1.22596
24 3.55689 2.37126 0 0.244343 -0.391021 0.0953542
33 2.37126 3.55689 0 -1.66459 -1.38963 0.364297
34 3.55689 3.55689 0 0.508159 -1.20723 1.34346
123 2.37126 2.37126 1.18563 1.51041 0.526543 0.95121
124 3.55689 2.37126 1.18563 1.53002 -1.05945 -0.814246
133 2.37126 3.55689 1.18563 -1.70183 0.367925 -1.27593
134 3.55689 3.55689 1.18563 0.634856 1.43906 0.67007
25 4.74252 2.37126 0 -1.15591 -0.765527 -1.15104
35 4.74252 3.55689 0 1.17478 0.677655 -0.935289
125 4.74252 2.37126 1.18563 -0.648821 0.935604 0.729651
135 4.74252 3.55689 1.18563 0.584624 0.903834 0.197889
26 5.92816 2.37126 0 0.799705 0.30558 0.324406
27 7.11379 2.37126 0 -0.53758 -1.67228 -1.61741
36 5.92816 3.55689 0 1.07856 1.18383 -0.709459
37 7.11379 3.55689 0 -0.165831 -1.42707 -1.33839
126 5.92816 2.37126 1.18563 1.3402 -1.33945 -0.0773555
127 7.11379 2.37126 1.18563 0.337599 1.54574 1.67026
136 5.92816 3.55689 1.18563 -0.167606 0.112034 0.255493
137 7.11379 3.55689 1.18563 -1.2607 -1.25427 -1.41882
28 8.29942 2.37126 0 0.205853 1.19264 0.935088
29 9.48505 2.37126 0 -0.964087 1.68629 0.0313198
38 8.29942 3.55689 0 0.367144 -0.460353 -0.683962
39 9.48505 3.55689 0 -0.471022 1.29961 -0.0880709
128 8.29942 2.37126 1.18563 -0.974238 -1.5687 -0.420742
129 9.48505 2.37126 1.18563 -0.858165 0.339977 -0.331831
138 8.29942 3.55689 1.18563 1.35907 -1.424 1.48877
139 9.48505 3.55689 1.18563 -0.629621 -0.607105 1.27685
30 10.6707 2.37126 0 -0.0642861 0.347432 -0.538473
40 10.6707 3.55689 0 1.54068 0.161434 0.744624
130 10.6707 2.37126 1.18563 1.25721 -1.61929 -0.0297782
140 10.6707 3.55689 1.18563 0.808275 1.39646 -0.512423
41 0 4.74252 0 -1.52095 0.16622 1.00483
42 1.18563 4.74252 0 -0.26582 -1.47964 0.650265
141 0 4.74252 1.18563 -0.7239 1.18569 -0.822439
142 1.18563 4.74252 1.18563 1.1079 -0.802758 0.672814
43 2.37126 4.74252 0 -1.07245 0.365662 -0.968038
44 3.55689 4.74252 0 1.5186 -1.37771 -1.58072
143 2.37126 4.74252 1.18563 1.37974 0.853906 1.29657
144 3.55689 4.74252 1.18563 0.965934 1.47095 -0.281078
45 4.74252 4.74252 0 -0.358508 -0.824483 1.62084
145 4.74252 4.74252 1.18563 0.0883026 -1.1334 0.922266
46 5.92816 4.74252 0 -1.71705 -0.983561 -1.36248
47 7.11379 4.74252 0 -0.0403626 1.4872 0.896816
146 5.92816 4.74252 1.18563 -0.312749 1.22521 1.06106
147 7.11379 4.74252 1.18563 -0.109053 1.03176 -0.904293
48 8.29942 4.74252 0 0.792479 0.897037 1.02419
49 9.48505 4.74252 0 0.885537 -0.512543 0.746868
148 8.29942 4.74252 1.18563 -0.936795 0.1714 0.899772
149 9.48505 4.74252 1.18563 1.65445 1.70264 -0.694643
50 10.6707 4.74252 0 1.32694 -1.08867 -0.295565
150 10.6707 4.74252 1.18563 1.30829 -0.729658 -1.45581
51 0 5.92816 0 0.656809 0.836635 0.40392
52 1.18563 5.92816 0 0.524907 1.35203 -1.24312
61 0 7.11379 0 -0.174742 -1.28078 -0.614154
62 1.18563 7.11379 0 1.34713 0.134568 -1.02537
151 0 5.92816 1.18563 0.204231 -1.66501 -1.38566
152 1.18563 5.92816 1.18563 0.773505 -0.729166 -0.169459
161 0 7.11379 1.18563 -1.622 -0.301982 0.88714
162 1.18563 7.11379 1.18563 -1.46149 -1.12078 0.420379
53 2.37126 5.92816 0 1.2427 -1.41849 -0.16289
54 3.55689 5.92816 0 -0.822931 -0.186096 -0.356964
63 2.37126 7.11379 0 0.249113 -0.402724 -1.34825
64 3.55689 7.11379 0 -1.43171 0.802469 1.43982
153 2.37126 5.92816 1.18563 0.349112 -0.202888 -0.16616
154 3.55689 5.92816 1.18563 0.0145889 1.14359 -0.56051
163 2.37126 7.11379 1.18563 1.73349 -1.57733 0.83899
164 3.55689 7.11379 1.18563 1.63994 -1.50543 -0.501877
55 4.74252 5.92816 0 0.711653 -1.31118 1.0033
65 4.74252 7.11379 0 -0.591452 -0.614037 -0.176707
155 4.74252 5.92816 1.18563 -0.0613007 1.71392 0.733277
165 4.74252 7.11379 1.18563 -1.28724 -1.17573 0.828194
56 5.92816 5.92816 0 -1.65202 0.755596 1.59505
57 7.11379 5.92816 0 0.580847 0.185957 1.51312
66 5.92816 7.11379 0 0.547672 0.452927 1.39281
67 7.11379 7.11379 0 0.814351 -1.07841 1.28114
156 5.92816 5.92816 1.18563 -0.472354 -0.17344 -0.31768
157 7.11379 5.92816 1.18563 -1.46438 -0.904936 -1.28253
166 5.92816 7.11379 1.18563 1.47693 -0.935102 0.732508
167 7.11379 7.11379 1.18563 0.540835 0.587983 1.58554
58 8.29942 5.92816 0 0.71716 0.59392 0.25683
59 9.48505 5.92816 0 0.30063 0.804839 -0.564152
68 8.29942 7.11379 0 -0.234789 0.577203 1.69541
69 9.48505 7.11379 0 -0.0773734 0.0373398 0.00535159
158 8.29942 5.92816 1.18563 1.3961 0.371446 -1.36393
159 9.48505 5.92816 1.18563 -0.0348185 0.531916 0.619451
168 8.29942 7.11379 1.18563 1.06269 -0.530528 -1.68316
169 9.48505 7.11379 1.18563 0.303633 -1.02339 -1.3772
60 10.6707 5.92816 0 1.49517 -1.13306 -0.267402
70 10.6707 7.11379 0 -0.703904 -0.925608 -0.0718883
160 10.6707 5.92816 1.18563 0.528145 -0.00455983 0.0652475
170 10.6707 7.11379 1.18563 0.0361206 0.433775 0.259921
71 0 8.29942 0 1.5774 0.261142 -0.452652
72 1.18563 8.29942 0 -0.253908 -0.000108141 1.66893
81 0 9.48505 0 -1.61218 0.922551 0.993227
82 1.18563 9.48505 0 -0.0319366 0.157237 -0.0535469
171 0 8.29942 1.18563 -0.0520332 0.580896 1.00657
172 1.18563 8.29942 1.18563 1.05096 0.976761 -1.34432
181 0 9.48505 1.18563 0.572297 -0.559536 -1.11796
182 1.18563 9.48505 1.18563 -1.00652 -0.195283 -1.34808
73 2.37126 8.29942 0 1.16344 -1.71781 0.153536
74 3.55689 8.29942 0 0.490544 -0.913181 -0.412671
83 2.37126 9.48505 0 -0.454372 -1.26448 1.43808
84 3.55689 9.48505 0 1.58184 1.68157 0.911057
173 2.37126 8.29942 1.18563 -1.68897 0.225914 0.176536
174 3.55689 8.29942 1.18563 0.0546793 -1.43308 -1.29291
183 2.37126 9.48505 1.18563 1.4395 1.02476 -0.059268
184 3.55689 9.48505 1.18563 1.01278 0.894058 -0.245107
75 4.74252 8.29942 0 -1.18316 1.4157 -1.48681
85 4.74252 9.48505 0 -0.433242 1.72674 -0.0913025
175 4.74252 8.29942 1.18563 1.2718 -0.42586 0.294472
185 4.74252 9.48505 1.18563 1.48812 -1.15143 1.26836
76 5.92816 8.29942 0 -1.33054 -0.226046 1.09398
77 7.11379 8.29942 0 -1.15401 -0.184014 -0.226718
86 5.92816 9.48505 0 -0.476427 1.1042 -0.16723
87 7.11379 9.48505 0 -0.542112 -1.13835 1.49806
176 5.92816 8.29942 1.18563 -1.5846 0.668011 0.844463
177 7.11379 8.29942 1.18563 -0.514333 -1.44094 -0.952607
186 5.92816 9.48505 1.18563 1.02345 -1.05713 -0.156149
187 7.11379 9.48505 1.18563 0.910671 0.0553841 -0.0459108
78 8.29942 8.29942 0 0.261838 0.793748 1.30816
79 9.48505 8.29942 0 0.599603 1.63161 1.43997
88 8.29942 9.48505 0 -1.2996 0.350457 1.48338
89 9.48505 9.48505 0 -0.507367 0.579078 -1.65259
178 8.29942 8.29942 1.18563 -0.604056 0.218069 0.811365
179 9.48505 8.29942 1.18563 1.03384 -0.775738 1.55826
188 8.29942 9.48505 1.18563 -1.1134 -1.02973 0.150542
189 9.48505 9.48505 1.18563 -1.01123 0.728522 -0.205551
80 10.6707 8.29942 0 -1.53297 0.314843 -0.883796
90 10.6707 9.48505 0 1.61723 0.323617 0.13723
180 10.6707 8.29942 1.18563 -0.67856 -0.316537 0.309537
190 10.6707 9.48505 1.18563 0.387323 0.495588 0.175462
91 0 10.6707 0 -1.60854 -0.626252 0.221672
92 1.18563 10.6707 0 -1.38429 -0.556356 0.0343279
191 0 10.6707 1.18563 -0.564016 0.280976 1.68856
192 1.18563 10.6707 1.18563 -0.151631 0.13812 -0.612439
93 2.37126 10.6707 0 1.68132 0.175884 -0.434743
94 3.55689 10.6707 0 0.914289 1.60378 0.862713
193 2.37126 10.6707 1.18563 -1.21996 0.0934519 1.73589
194 3.55689 10.6707 1.18563 0.397794 -1.31663 0.0697027
95 4.74252 10.6707 0 -0.602327 1.3848 -1.35632
195 4.74252 10.6707 1.18563 0.0407059 0.796828 0.776335
96 5.92816 10.6707 0 -1.21758 1.68603 -0.976825
97 7.11379 10.6707 0 0.268801 -0.728742 -0.0145633
196 5.92816 10.6707 1.18563 1.50138 -1.34592 -0.736206
197 7.11379 10.6707 1.18563 0.0549918 0.332615 1.45469
98 8.29942 10.6707 0 -0.712057 1.50227 -0.293724
99 9.48505 10.6707 0 0.210035 -1.7309 -0.0871129
198 8.29942 10.6707 1.18563 -1.58978 0.806059 -0.974048
199 9.48505 10.6707 1.18563 1.62665 1.67512 0.556122
100 10.6707 10.6707 0 0.210415 1.1736 1.7177
200 10.6707 10.6707 1.18563 -0.479173 0.276801 1.2452
201 0 0 2.37126 -1.22623 -0.818403 -0.780031
202 1.18563 0 2.37126 -0.863151 0.20854 1.02446
211 0 1.18563 2.37126 -0.322873 -1.58086 0.817103
212 1.18563 1.18563 2.37126 -0.140229 0.0200983 -0.395758
301 0 0 3.55689 1.58592 0.491577 -0.984804
302 1.18563 0 3.55689 -1.34054 -0.884027 1.4805
311 0 1.18563 3.55689 0.903959 -1.1899 -0.286496
312 1.18563 1.18563 3.55689 -0.333725 0.804948 1.27233
203 2.37126 0 2.37126 -1.48053 -0.335001 0.290027
204 3.55689 0 2.37126 0.407811 -0.308534 -1.14883
213 2.37126 1.18563 2.37126 0.674013 0.609012 -0.603436
214 3.55689 1.18563 2.37126 0.183238 1.12932 0.071951
303 2.37126 0 3.55689 -0.232038 1.49931 -1.22434
304 3.55689 0 3.55689 -0.418016 -0.371135 -0.383418
313 2.37126 1.18563 3.55689 1.56243 -0.22447 -0.30757
314 3.55689 1.18563 3.55689 1.10182 1.60977 0.399884
205 4.74252 0 2.37126 -0.281978 -1.09624 1.5523
215 4.74252 1.18563 2.37126 -0.523491 1.53623 -1.29071
305 4.74252 0 3.55689 -1.11478 0.23388 1.57045
315 4.74252 1.18563 3.55689 -1.05538 1.40817 0.964249
206 5.92816 0 2.37126 0.31709 -1.47288 -0.741902
207 7.11379 0 2.37126 -1.53516 -1.60081 0.331111
216 5.92816 1.18563 2.37126 -0.085341 -1.38828 -1.39137
217 7.11379 1.18563 2.37126 -0.984732 -0.127141 0.349837
306 5.92816 0 3.55689 -1.50132 -1.19892 1.56435
307 7.11379 0 3.55689 0.58674 1.61075 -0.532187
316 5.92816 1.18563 3.55689 1.02947 -1.10174 -0.331402
317 7.11379 1.18563 3.55689 1.50155 1.43661 1.23695
208 8.29942 0 2.37126 0.580168 -0.760975 -1.34862
209 9.48505 0 2.37126 -0.689978 -0.466304 0.400177
218 8.29942 1.18563 2.37126 1.52607 -1.23364 0.196353
219 9.48505 1.18563 2.37126 -1.58674 -0.323748 1.14581
308 8.29942 0 3.55689 -1.67857 0.806993 0.773626
309 9.48505 0 3.55689 1.30083 -0.569403 0.396353
318 8.29942 1.18563 3.55689 -0.458457 -0.200107 1.24214
319 9.48505 1.18563 3.55689 -0.324105 -1.37389 -0.173894
210 10.6707 0 2.37126 0.384492 1.74059 -0.792653
220 10.6707 1.18563 2.37126 -1.66689 -1.6085 0.0730976
310 10.6707 0 3.55689 -1.12605 -1.03291 -1.07449
320 10.6707 1.18563 3.55689 -0.984768 -0.737291 -0.753562
221 0 2.37126 2.37126 1.31472 -0.811087 0.150983
222 1.18563 2.37126 2.37126 -0.578262 1.41616 -0.683482
231 0 3.55689 2.37126 1.06423 0.978431 -1.16929
232 1.18563 3.55689 2.37126 0.991715 -1.0487 -1.47711
321 0 2.37126 3.55689 1.21017 -0.799925 -0.529515
322 1.18563 2.37126 3.55689 1.38943 -0.200547 0.818309
331 0 3.55689 3.55689 -1.1306 -0.719566 0.815559
332 1.18563 3.55689 3.55689 -1.69424 -1.0826 0.644099
223 2.37126 2.37126 2.37126 0.620588 -1.29306 -1.25888
224 3.55689 2.37126 2.37126 1.41443 1.63465 0.136018
233 2.37126 3.55689 2.37126 1.38094 0.0279468 -0.971321
234 3.55689 3.55689 2.37126 -1.35082 0.560962 0.687623
323 2.37126 2.37126 3.55689 -0.78457 -0.450452 -1.63511
324 3.55689 2.37126 3.55689 -1.01946 -1.56453 -0.0824831
333 2.37126 3.55689 3.55689 -0.107329 -1.37846 -0.210657
334 3.55689 3.55689 3.55689 1.73729 -0.448307 -0.436523
225 4.74252 2.37126 2.37126 -1.06628 -0.444609 -1.04752
235 4.74252 3.55689 2.37126 -0.75864 -0.44658 0.687611
325 4.74252 2.37126 3.55689 1.3197 -0.766448 0.810896
335 4.74252 3.55689 3.55689 -1.12405 1.29062 -1.42109
226 5.92816 2.37126 2.37126 0.971112 1.33047 -0.927022
227 7.11379 2.37126 2.37126 0.566099 -0.134958 1.44864
236 5.92816 3.55689 2.37126 -0.957503 0.782748 1.20504
237 7.11379 3.55689 2.37126 0.290089 1.45345 -1.4954
326 5.92816 2.37126 3.55689 0.135474 0.25017 -0.0709446
327 7.11379 2.37126 3.55689 0.00633614 -1.58901 -0.236026
336 5.92816 3.55689 3.55689 1.60372 -0.207623 0.439158
337 7.11379 3.55689 3.55689 0.0795747 -1.39145 1.12653
228 8.29942 2.37126 2.37126 1.34964 0.514612 -0.833466
229 9.48505 2.37126 2.37126 0.556383 0.420127 0.974882
238 8.29942 3.55689 2.37126 0.77414 -0.520085 -0.492014
239 9.48505 3.55689 2.37126 0.628317 -0.391576 1.22849
328 8.29942 2.37126 3.55689 0.710224 -0.925179 0.157417
329 9.48505 2.37126 3.55689 -0.517338 0.347583 -1.4905
338 8.29942 3.55689 3.55689 -1.42754 1.21227 -0.245048
339 9.48505 3.55689 3.55689 -1.0105 -0.933373 -1.59236
230 10.6707 2.37126 2.37126 -1.54732 -0.199978 -0.0833281
240 10.6707 3.55689 2.37126 0.365289 -0.257492 -0.962393
330 10.6707 2.37126 3.55689 -0.559619 0.96645 -0.330729
340 10.6707 3.55689 3.55689 -0.682385 1.63545 -0.227891
241 0 4.74252 2.37126 -1.22109 -1.43142 -1.32631
242 1.18563 4.74252 2.37126 1.10347 1.54523 -0.0634528
341 0 4.74252 3.55689 1.4554 -0.156088 -1.55283
342 1.18563 4.74252 3.55689 1.2815 -1.28873 1.65292
243 2.37126 4.74252 2.37126 0.407826 -0.0647299 -0.137274
244 3.55689 4.74252 2.37126 0.880946 -0.960511 -0.974458
343 2.37126 4.74252 3.55689 0.517322 -0.616845 1.43857
344 3.55689 4.74252 3.55689 -0.532759 -0.825254 -0.87942
245 4.74252 4.74252 2.37126 1.71283 -0.274768 1.54608
345 4.74252 4.74252 3.55689 -1.27245 -0.104192 -0.944649
246 5.92816 4.74252 2.37126 0.254743 0.0762733 -1.09464
247 7.11379 4.74252 2.37126 0.528863 1.59367 -1.69096
346 5.92816 4.74252 3.55689 0.658992 -0.833205 1.45301
347 7.11379 4.74252 3.55689 1.49927 1.49688 -0.338764
248 8.29942 4.74252 2.37126 1.67981 -0.915266 -0.576916
249 9.48505 4.74252 2.37126 -0.371047 1.10898 0.0280346
348 8.29942 4.74252 3.55689 -0.201208 0.164132 0.777772
349 9.48505 4.74252 3.55689 1.24363 0.29349 -0.668005
250 10.6707 4.74252 2.37126 0.504054 -0.485467 -0.904152
350 10.6707 4.74252 3.55689 -0.737664 -0.0473272 -0.514158
251 0 5.92816 2.37126 1.42896 -1.71907 -0.017031
252 1.18563 5.92816 2.37126 -0.349966 -0.207072 -0.76293
261 0 7.11379 2.37126 0.441941 1.52979 -1.58356
262 1.18563 7.11379 2.37126 0.735004 0.6556 1.441
351 0 5.92816 3.55689 1.49864 1.47905 -0.19626
352 1.18563 5.92816 3.55689 -0.348962 -0.767121 -0.0396335
361 0 7.11379 3.55689 -0.734686 1.1988 0.0143351
362 1.18563 7.11379 3.55689 0.363205 -0.41598 -1.0063
253 2.37126 5.92816 2.37126 0.664236 0.141322 0.906906
254 3.55689 5.92816 2.37126 -0.462483 -1.61752 -1.6685
263 2.37126 7.11379 2.37126 -1.57603 -1.58901 -0.170566
264 3.55689 7.11379 2.37126 -0.826772 1.50547 1.20917
353 2.37126 5.92816 3.55689 -0.205528 0.773152 0.301477
354 3.55689 5.92816 3.55689 1.07935 0.526779 1.42711
363 2.37126 7.11379 3.55689 -0.0191263 -0.700413 -1.53518
364 3.55689 7.11379 3.55689 1.5427 -0.709457 -0.128612
255 4.74252 5.92816 2.37126 -0.87743 0.792868 0.448413
265 4.74252 7.11379 2.37126 -0.138699 1.33456 1.50798
355 4.74252 5.92816 3.55689 -1.50889 0.583571 0.650967
365 4.74252 7.11379 3.55689 0.0286812 0.912681 -1.0317
256 5.92816 5.92816 2.37126 -1.267 0.922366 1.36943
257 7.11379 5.92816 2.37126 -1.65774 -1.33586 1.01353
266 5.92816 7.11379 2.37126 1.5199 -0.3163 0.81373
267 7.11379 7.11379 2.37126 -1.0557 -0.441078 -0.976955
356 5.92816 5.92816 3.55689 0.263286 0.723918 -0.884935
357 7.11379 5.92816 3.55689 0.15827 -0.125197 1.64563
366 5.92816 7.11379 3.55689 -1.52543 1.61826 0.117691
367 7.11379 7.11379 3.55689 1.20016 -1.62108 1.26563
258 8.29942 5.92816 2.37126 -0.476419 1.23946 -0.0528187
259 9.48505 5.92816 2.37126 1.32518 0.70496 1.24423
268 8.29942 7.11379 2.37126 1.57779 -0.195423 -0.224855
269 9.48505 7.11379 2.37126 0.197292 0.253027 -0.85863
358 8.29942 5.92816 3.55689 -0.113269 -0.0961945 0.979139
359 9.48505 5.92816 3.55689 0.261569 -0.251261 -0.825608
368 8.29942 7.11379 3.55689 0.499041 -1.05463 0.00170186
369 9.48505 7.11379 3.55689 0.71136 0.731736 1.51599
260 10.6707 5.92816 2.37126 0.0276521 1.04832 -1.54147
270 10.6707 7.11379 2.37126 -0.513123 1.46525 1.54287
360 10.6707 5.92816 3.55689 0.141264 -0.0630155 0.784914
370 10.6707 7.11379 3.55689 0.0814595 -1.09183 -1.14585
271 0 8.29942 2.37126 -1.28106 1.69906 -1.58017
272 1.18563 8.29942 2.37126 -1.52665 -1.51933 -0.426913
281 0 9.48505 2.37126 0.194885 1.64431 -1.37458
282 1.18563 9.48505 2.37126 -1.25587 -0.292099 -0.36891
371 0 8.29942 3.55689 0.968165 0.603902 0.6748
372 1.18563 8.29942 3.55689 -0.108147 -1.17846 0.239905
381 0 9.48505 3.55689 -0.494032 1.57643 1.36004
382 1.18563 9.48505 3.55689 0.944661 -0.451342 0.842158
273 2.37126 8.29942 2.37126 0.0184119 -0.846738 0.637281
274 3.55689 8.29942 2.37126 0.361357 -0.0960874 -0.707464
283 2.37126 9.48505 2.37126 -1.32395 -0.96519 0.57737
284 3.55689 9.48505 2.37126 1.02054 -1.28477 -1.45348
373 2.37126 8.29942 3.55689 1.72361 -0.33119 1.57928
374 3.55689 8.29942 3.55689 0.491643 0.115683 -1.16435
383 2.37126 9.48505 3.55689 -0.90737 -0.357436 -0.246362
384 3.55689 9.48505 3.55689 1.31291 0.234432 0.395429
275 4.74252 8.29942 2.37126 -1.49707 0.579434 0.847903
285 4.74252 9.48505 2.37126 1.08474 0.468048 1.00784
375 4.74252 8.29942 3.55689 0.225539 0.847599 -0.108435
385 4.74252 9.48505 3.55689 0.775967 -1.19852 1.27824
276 5.92816 8.29942 2.37126 1.50975 -0.112354 1.3322
277 7.11379 8.29942 2.37126 0.222189 0.32552 0.756262
286 5.92816 9.48505 2.37126 1.59204 -1.14056 -0.77902
287 7.11379 9.48505 2.37126 -1.30336 -0.0654139 -1.17512
376 5.92816 8.29942 3.55689 0.951742 0.0182907 0.603156
377 7.11379 8.29942 3.55689 -1.40542 -0.0376086 -1.03707
386 5.92816 9.48505 3.55689 -0.173658 -0.495555 0.374222
387 7.11379 9.48505 3.55689 -0.0330685 -1.43424 0.0787529
278 8.29942 8.29942 2.37126 -1.15677 -1.31293 -0.531581
279 9.48505 8.29942 2.37126 1.53429 0.820979 -1.24179
288 8.29942 9.48505 2.37126 0.515833 -1.24129 0.676954
289 9.48505 9.48505 2.37126 1.22709 1.30127 -0.142298
378 8.29942 8.29942 3.55689 -1.2245 0.396814 -0.358497
379 9.48505 8.29942 3.55689 -0.636889 -0.741957 1.02537
388 8.29942 9.48505 3.55689 -1.25691 -0.37238 -0.38541
389 9.48505 9.48505 3.55689 0.277639 1.39212 -0.381789
280 10.6707 8.29942 2.37126 -0.703727 -1.44943 -0.605717
290 10.6707 9.48505 2.37126 0.105605 0.295637 0.560845
380 10.6707 8.29942 3.55689 -0.217734 1.33869 1.1604
390 10.6707 9.48505 3.55689 -1.62032 0.0713135 -0.777813
291 0 10.6707 2.37126 -1.27664 -0.796137 0.389025
292 1.18563 10.6707 2.37126 1.22088 1.43031 0.0333451
391 0 10.6707 3.55689 1.54622 -0.850388 -1.43739
392 1.18563 10.6707 3.55689 -0.440301 1.62471 0.416443
293 2.37126 10.6707 2.37126 -0.889581 -1.22434 -0.325925
294 3.55689 10.6707 2.37126 -0.580201 0.202177 -1.30934
393 2.37126 10.6707 3.55689 -1.66966 0.556279 -1.32817
394 3.55689 10.6707 3.55689 1.36132 1.43639 1.08565
295 4.74252 10.6707 2.37126 0.545662 1.52601 1.20271
395 4.74252 10.6707 3.55689 -1.69559 0.53085 0.13244
296 5.92816 10.6707 2.37126 -0.611729 0.258214 -0.847858
297 7.11379 10.6707 2.37126 -0.76175 -0.426701 0.0927081
396 5.92816 10.6707 3.55689 1.54967 1.41248 0.195167
397 7.11379 10.6707 3.55689 -0.588438 1.22129 1.38189
298 8.29942 10.6707 2.37126 -0.305633 -1.20314 0.387908
299 9.48505 10.6707 2.37126 -0.119052 0.33143 -1.02906
398 8.29942 10.6707 3.55689 -1.33484 0.762391 0.732541
399 9.48505 10.6707 3.55689 1.09437 -1.58907 -1.17028
300 10.6707 10.6707 2.37126 1.033 -1.02162 0.408546
400 10.6707 10.6707 3.55689 1.67832 -1.52006 1.12712
401 0 0 4.74252 1.51373 0.544287 -0.65589
402 1.18563 0 4.74252 0.663988 -0.531474 -0.156629
411 0 1.18563 4.74252 0.00877905 1.11783 -1.28529
412 1.18563 1.18563 4.74252 0.228878 1.18555 0.362204
403 2.37126 0 4.74252 -0.180993 1.73085 -0.657423
404 3.55689 0 4.74252 -0.698825 0.755041 -0.76764
413 2.37126 1.18563 4.74252 0.184917 1.4503 1.34281
414 3.55689 1.18563 4.74252 0.757013 0.996711 -0.759524
405 4.74252 0 4.74252 1.69252 0.0921395 0.596578
415 4.74252 1.18563 4.74252 -1.36925 1.1704 0.334926
406 5.92816 0 4.74252 -0.394228 -1.50219 1.61736
407 7.11379 0 4.74252 -1.0239 0.540527 -1.1009
416 5.92816 1.18563 4.74252 -1.54425 -0.876504 -1.08129
417 7.11379 1.18563 4.74252 1.66024 1.51595 -0.504052
408 8.29942 0 4.74252 -0.189777 0.538849 -1.41338
409 9.48505 0 4.74252 -1.32191 -1.61724 -0.529247
418 8.29942 1.18563 4.74252 0.519411 -0.375352 -1.52302
419 9.48505 1.18563 4.74252 0.187686 -0.811202 1.69305
410 10.6707 0 4.74252 -1.07429 0.76583 -0.724385
420 10.6707 1.18563 4.74252 -1.45422 -0.953431 -0.50829
421 0 2.37126 4.74252 -0.985177 -0.639897 0.999283
422 1.18563 2.37126 4.74252 0.644414 1.69537 -0.84393
431 0 3.55689 4.74252 -0.219397 1.27359 -1.63971
432 1.18563 3.55689 4.74252 -1.54195 -0.600226 -1.64251
423 2.37126 2.37126 4.74252 -0.977509 -0.762774 -0.20937
424 3.55689 2.37126 4.74252 -1.0302 -0.840381 -0.599562
433 2.37126 3.55689 4.74252 0.134074 1.11938 0.487143
434 3.55689 3.55689 4.74252 1.1921 -1.17706 -0.619539
425 4.74252 2.37126 4.74252 -0.946888 1.38148 -1.39582
435 4.74252 3.55689 4.74252 1.48115 0.249662 -1.63319
426 5.92816 2.37126 4.74252 0.962635 -1.69251 0.0844853
427 7.11379 2.37126 4.74252 0.951771 0.510155 0.952392
436 5.92816 3.55689 4.74252 -0.0638506 0.695379 0.596313
437 7.11379 3.55689 4.74252 -1.35328 1.04996 1.70558
428 8.29942 2.37126 4.74252 0.482636 -1.33709 1.27174
429 9.48505 2.37126 4.74252 -1.36991 0.48834 0.392441
438 8.29942 3.55689 4.74252 -0.110943 0.641333 -1.27382
439 9.48505 3.55689 4.74252 1.3585 -0.57172 -0.19219
430 10.6707 2.37126 4.74252 -0.647308 -1.5294 1.05483
440 10.6707 3.55689 4.74252 -1.67509 -0.0203265 0.046879
441 0 4.74252 4.74252 -0.0463223 -1.05696 -0.804724
442 1.18563 4.74252 4.74252 -0.985556 -0.0285366 1.51714
443 2.37126 4.74252 4.74252 -1.37921 1.17098 -0.448207
444 3.55689 4.74252 4.74252 1.24107 -0.863425 -0.903021
445 4.74252 4.74252 4.74252 -0.48406 -1.66476 -0.801247
446 5.92816 4.74252 4.74252 1.65959 1.06157 1.47557
447 7.11379 4.74252 4.74252 0.617279 -1.10948 -1.44452
448 8.29942 4.74252 4.74252 -1.70782 0.830099 -1.36993
449 9.48505 4.74252 4.74252 0.142458 -0.90802 -0.832314
450 10.6707 4.74252 4.74252 -1.0032 -0.191591 1.43094
451 0 5.92816 4.74252 0.0967176 0.838643 -0.70952
452 1.18563 5.92816 4.74252 -1.18298 0.89447 -0.291039
461 0 7.11379 4.74252 1.29122 -1.70883 1.14154
462 1.18563 7.11379 4.74252 -0.143556 -0.103763 -0.707812
453 2.37126 5.92816 4.74252 0.0151232 -0.335918 -1.17761
454 3.55689 5.92816 4.74252 0.637121 1.15998 -0.548704
463 2.37126 7.11379 4.74252 -0.374363 1.16057 -1.02323
464 3.55689 7.11379 4.74252 1.34612 0.485685 1.09335
455 4.74252 5.92816 4.74252 -0.366707 0.834522 -0.245887
465 4.74252 7.11379 4.74252 -1.21689 -0.630334 1.35347
456 5.92816 5.92816 4.74252 -1.15559 1.05679 1.39054
457 7.11379 5.92816 4.74252 1.00985 0.488155 0.771289
466 5.92816 7.11379 4.74252 -1.47607 1.37543 1.5966
467 7.11379 7.11379 4.74252 -1.25897 -0.20777 1.44971
458 8.29942 5.92816 4.74252 0.37369 1.488 0.340538
459 9.48505 5.92816 4.74252 -1.36262 1.12447 -1.16658
468 8.29942 7.11379 4.74252 -1.57936 1.69154 1.14162
469 9.48505 7.11379 4.74252 1.24453 1.4959 0.681006
460 10.6707 5.92816 4.74252 1.16446 1.53222 1.0099
470 10.6707 7.11379 4.74252 -0.406225 -0.923865 1.32235
471 0 8.29942 4.74252 -1.4198 -1.16337 -0.693598
472 1.18563 8.29942 4.74252 1.44088 -0.162506 -1.33019
481 0 9.48505 4.74252 -0.0905816 1.18036 0.324527
482 1.18563 9.48505 4.74252 1.49253 -0.237817 -1.492
473 2.37126 8.29942 4.74252 -1.34316 0.391671 0.365308
474 3.55689 8.29942 4.74252 0.0607763 -0.0672047 0.105439
483 2.37126 9.48505 4.74252 -1.29397 0.782849 -0.586884
484 3.55689 9.48505 4.74252 -0.547641 0.0648589 -1.1799
475 4.74252 8.29942 4.74252 0.992154 -0.639281 0.894108
485 4.74252 9.48505 4.74252 0.463767 -1.20556 1.47699
476 5.92816 8.29942 4.74252 0.598315 0.905986 1.50006
477 7.11379 8.29942 4.74252 0.834563 0.449261 -0.957943
486 5.92816 9.48505 4.74252 0.128521 -1.55816 -1.21823
487 7.11379 9.48505 4.74252 1.22302 -0.970341 1.16409
478 8.29942 8.29942 4.74252 0.363638 -0.105988 0.236347
479 9.48505 8.29942 4.74252 1.2002 -0.941812 -0.471684
488 8.29942 9.48505 4.74252 -1.23082 -1.17182 0.212635
489 9.48505 9.48505 4.74252 0.12395 -1.68756 -0.486211
480 10.6707 8.29942 4.74252 0.634632 1.1641 -1.01771
490 10.6707 9.48505 4.74252 0.53555 -1.06191 -0.280278
491 0 10.6707 4.74252 -0.417851 -1.07488 1.31348
492 1.18563 10.6707 4.74252 -0.619809 0.435237 0.414357
493 2.37126 10.6707 4.74252 1.62164 1.25573 1.50004
494 3.55689 10.6707 4.74252 0.607868 1.09097 0.544666
495 4.74252 10.6707 4.74252 -1.2586 -0.908603 -0.157345
496 5.92816 10.6707 4.74252 1.73477 -0.96994 0.94194
497 7.11379 10.6707 4.74252 -0.859596 0.692522 1.3837
498 8.29942 10.6707 4.74252 1.09448 0.395577 -0.230741
499 9.48505 10.6707 4.74252 -1.11956 0.0791628 -1.34044
500 10.6707 10.6707 4.74252 0.737848 -0.351331 1.24883
501 0 0 5.92816 0.471473 -0.695013 -1.41139
502 1.18563 0 5.92816 0.62231 -0.244287 1.3225
511 0 1.18563 5.92816 0.623544 -0.408197 0.802563
512 1.18563 1.18563 5.92816 -0.468735 1.38612 -0.109992
601 0 0 7.11379 -0.220803 -1.43649 0.691055
602 1.18563 0 7.11379 1.14541 -1.33096 -0.192638
611 0 1.18563 7.11379 -1.11309 0.630314 -1.68418
612 1.18563 1.18563 7.11379 0.646319 -1.15406 -1.03737
503 2.37126 0 5.92816 0.96967 1.50066 0.554782
504 3.55689 0 5.92816 1.41317 1.32615 -0.437844
513 2.37126 1.18563 5.92816 -0.804868 0.072833 0.354703
514 3.55689 1.18563 5.92816 -0.364138 -1.31641 0.150766
603 2.37126 0 7.11379 1.2566 -1.35187 0.447556
604 3.55689 0 7.11379 -1.72364 -0.21994 -0.882841
613 2.37126 1.18563 7.11379 0.774643 0.956181 1.40658
614 3.55689 1.18563 7.11379 -1.35056 1.54237 0.678665
505 4.74252 0 5.92816 1.08705 1.03059 0.317401
515 4.74252 1.18563 5.92816 -0.738265 0.31655 -0.0853517
605 4.74252 0 7.11379 0.497476 0.528042 -1.73869
615 4.74252 1.18563 7.11379 -1.40205 0.852481 -1.72693
506 5.92816 0 5.92816 0.259148 0.898288 1.12245
507 7.11379 0 5.92816 -0.279155 1.03324 -0.377125
516 5.92816 1.18563 5.92816 -1.5678 0.745459 -1.42896
517 7.11379 1.18563 5.92816 -1.72819 0.0860685 -0.330425
606 5.92816 0 7.11379 1.38644 -1.56985 1.12107
607 7.11379 0 7.11379 1.03971 0.23583 -0.515859
616 5.92816 1.18563 7.11379 0.357486 1.0807 -1.20501
617 7.11379 1.18563 7.11379 0.267398 0.110401 0.701662
508 8.29942 0 5.92816 0.0611561 -0.657473 -1.53259
509 9.48505 0 5.92816 -0.181614 -1.73069 -0.0975409
518 8.29942 1.18563 5.92816 0.486824 -0.678654 1.58227
519 9.48505 1.18563 5.92816 -1.52505 0.936034 0.981741
608 8.29942 0 7.11379 0.806153 0.602204 0.0347533
609 9.48505 0 7.11379 -1.62779 0.00585556 0.7934
618 8.29942 1.18563 7.11379 1.5996 0.406522 -1.05899
619 9.48505 1.18563 7.11379 -0.0406591 -0.00926174 1.22901
510 10.6707 0 5.92816 -0.729643 -1.20557 1.36542
520 10.6707 1.18563 5.92816 -1.33311 -1.49552 -1.20983
610 10.6707 0 7.11379 -1.06439 -0.0575388 -1.30259
620 10.6707 1.18563 7.11379 -1.37442 1.41132 1.64538
521 0 2.37126 5.92816 -0.453975 -1.56365 0.654667
522 1.18563 2.37126 5.92816 -0.297668 0.170421 -1.61154
531 0 3.55689 5.92816 0.27966 0.487445 -0.710375
532 1.18563 3.55689 5.92816 -1.6026 1.48417 -1.30066
621 0 2.37126 7.11379 -0.68606 -0.859916 -1.20254
622 1.18563 2.37126 7.11379 -0.0413203 -0.66292 1.04539
631 0 3.55689 7.11379 0.923178 1.06732 0.630652
632 1.18563 3.55689 7.11379 0.507814 -0.0407269 -1.14994
523 2.37126 2.37126 5.92816 1.22531 -0.831204 0.223111
524 3.55689 2.37126 5.92816 -1.61465 1.30598 -1.19533
533 2.37126 3.55689 5.92816 0.0374231 1.40645 0.00156755
534 3.55689 3.55689 5.92816 -1.54591 -0.884326 -0.0538951
623 2.37126 2.37126 7.11379 1.56259 -1.14244 -1.06227
624 3.55689 2.37126 7.11379 0.699421 -1.19486 0.0959509
633 2.37126 3.55689 7.11379 -1.58002 0.97933 -0.0185307
634 3.55689 3.55689 7.11379 -1.14934 1.51102 0.349413
525 4.74252 2.37126 5.92816 -0.907797 -0.558609 0.507688
535 4.74252 3.55689 5.92816 0.666616 -1.68354 0.950602
625 4.74252 2.37126 7.11379 -1.58822 -0.834435 1.71267
635 4.74252 3.55689 7.11379 1.37527 -1.11149 -0.320626
526 5.92816 2.37126 5.92816 1.32788 0.813063 1.68789
527 7.11379 2.37126 5.92816 -1.07294 -0.931633 -0.229634
536 5.92816 3.55689 5.92816 -1.70204 0.312074 1.38892
537 7.11379 3.55689 5.92816 1.74032 1.57808 1.21828
626 5.92816 2.37126 7.11379 0.506418 0.909908 1.18192
627 7.11379 2.37126 7.11379 -1.34857 0.038514 -1.178
636 5.92816 3.55689 7.11379 1.32135 -0.815245 -0.0104877